# vtk DataFile Version 2.0
Really cool data
ASCII
DATASET STRUCTURED_POINTS
DIMENSIONS 226 450 1
ORIGIN 0 0 0
SPACING 1 1 1
POINT_DATA 101700
SCALARS Spol90 double 1
LOOKUP_TABLE default
0.00018349820924126948 0.0002814226954856821 0.00037072788859544213 0.00046213387038624527 0.0005436975272969532 0.0006461082303473513 0.0007216187412811893 0.0008148999956481257 0.0010401333533607616 0.0011293937038945072 0.0012172489177561918 0.0013048399085618548 0.001402955918093541 0.0014940232547650954 0.0015784337541689924 0.001667367024922297 0.0017561937676699338 0.0018440186956828074 0.0019465999179375463 0.0020332020699518946 0.00211973959082167 0.002206445424526998 0.0022889283447669224 0.002389509274358123 0.002480002205626223 0.00256307955485163 0.002652381937049448 0.0027352812618099765 0.00283370246138046 0.0029197881805928852 0.0029990105021023947 0.0030787339408055426 0.0031604582899376816 0.003240688387888147 0.0033313229077066055 0.0034195998943079833 0.0034958395481634926 0.003567830687775038 0.0036529654072186032 0.003741904485580008 0.0038177423279167795 0.003897921279055871 0.003969327630797645 0.004064021780495106 0.0041441014231249 0.004222314265888388 0.0042892819752538575 0.004361268367557188 0.00443278280085598 0.004505171868798498 0.004586922856809612 0.0046542189974665546 0.004720836644775046 0.004785341288180344 0.004850426087477893 0.004922098132977715 0.004981961885006093 0.00505085638290541 0.00511039234087634 0.005173946123515507 0.0052308264788745815 0.0053022069208858895 0.005359950154914673 0.0054227472397012115 0.005482095781469813 0.0055347934963931485 0.0055859528321135785 0.005642258368686881 0.005692510413276525 0.005733841427126178 0.005782338069742634 0.005830452334483077 0.0058761990797309175 0.005928782886349943 0.005974457751478706 0.006016480106294994 0.006055248352661635 0.006102831909902986 0.006141191193654666 0.006180395804677958 0.006216718546900753 0.006256105537425503 0.006290336916345022 0.006334772437968063 0.0063710235817897466 0.006399433942195394 0.006427437337972754 0.006458869078736189 0.006489042691018501 0.006518701129788269 0.0065421193822718035 0.006566289422917718 0.006591999815593669 0.006610850231869873 0.006637168748470405 0.006651821526395317 0.006670584116035478 0.006686194962481418 0.006700696643024251 0.006712441842287252 0.006732912814984963 0.006744536116893765 0.0067569726494749035 0.006770308180030993 0.006783233493784402 0.006785112456857275 0.006793921834256501 0.006800814770324027 0.0067928392483561015 0.006795487076741124 0.006802921661604828 0.006799981845492515 0.006803499713860646 0.006797649187524469 0.006789197027157562 0.0067881948778173405 0.006784241861901085 0.006770871151158404 0.00676422070829458 0.006746757555099692 0.006732437790101249 0.006720617577349274 0.006701477255461171 0.006695033878378598 0.006679261130305424 0.006661203209452315 0.006638798862858814 0.0066180372304715145 0.0065940034533672354 0.006571075483651606 0.006539929095779796 0.006515790357031824 0.006485873518202823 0.0064651420884442095 0.006434676957289501 0.0064015683702413105 0.0063760479978946846 0.006345109579533029 0.006310159894882883 0.0062815324602475695 0.006247850300528229 0.006209640710379247 0.006164996714164103 0.00611775661239296 0.006076693835553003 0.006031953597431098 0.005990723537111828 0.005945909724107181 0.0058945935665803495 0.005841036369985393 0.005796835225812624 0.0057455617170817045 0.005694006295020169 0.005644058697245921 0.005589646025817317 0.0055231852973276875 0.005469428252338373 0.005416702165803543 0.005357911703672453 0.005296686483904748 0.005239992568021357 0.005175447159947239 0.005113652878719247 0.005055903967299265 0.00498032943587868 0.004909487331262874 0.004849694510784647 0.004781335231173572 0.004708942680327477 0.004643721449846263 0.00456396207572171 0.004497404027788712 0.00441930350395328 0.0043465618775460095 0.0042810716693647355 0.004207662899540814 0.0041301468989754985 0.00405698338629386 0.003983519096787832 0.003901869406098083 0.0038294493210805965 0.0037546675307057317 0.0036671734819286044 0.0035724521603674674 0.003483287385936247 0.003396862424376421 0.00330664430924571 0.0032275273716469094 0.0031415732632841336 0.0030626333712437124 0.0029776640197039747 0.002894009486248213 0.0027970693360922384 0.0027114477436867078 0.002629635037734662 0.002549439981888105 0.0024714313091208718 0.0023734416878367017 0.0022935913709986678 0.002208972217871536 0.0021276572025971142 0.0020361249948270843 0.0019458507737904202 0.001841536672659575 0.0017595307955819953 0.0016660484682041584 0.0015734815356253 0.0014858566824325061 0.0013925125129270774 0.00129795359335272 0.0012033228349665184 0.0011142613104861989 0.0010243910746711524 0.0009358436714855567 0.0008454081563818255 0.0007477573132548913 0.0006614979669680685 0.0005690605907880328 0.0004803141080125025 0.00038841516750093123 0.0002983929555357265 0.00020834686985789406 0.00011853461279396743 6.05485545103529e-05 0.0001018445369063304 0.00018349820924126948 0.0002814226954856821 0.00037072788859544213 0.00046213387038624527 0.0005436975272969532 0.0006461082303473513 0.0007216187412811893 0.0008148999956481257 0.0009057228224984733 0.000995954515657926 0.0010799930073994626 0.0011742651445819357 0.00126072368062847 0.001352243798147755 0.0014335358189166668 0.0015224856811293745 0.0016077730719463604 0.0017083026031692531 0.001794196825939658 0.001878617576687134 0.0019656860703969104 0.00205193978741094 0.0021464658111352824 0.002224193102837463 0.0023122393593024673 0.002390600105729252 0.00247333063410555 0.0025526220965138356 0.002641174710389096 0.002717932294274072 0.0027954802236025587 0.002871986679998704 0.002956238054179776 0.0030381087097839828 0.0031111765028822257 0.003187185512611288 0.003267299235586922 0.0033460338148606594 0.003419421040152308 0.0035031426961248664 0.0035753588219856122 0.0036482516369801157 0.003724270956455092 0.003798543165244576 0.0038800940173437013 0.00395022659806663 0.004021683604831653 0.004086824765797417 0.004157816884448198 0.004220369802219585 0.004292326120033371 0.004370637211834863 0.004435076468480493 0.004498975839685369 0.004565875817391894 0.004646911608426825 0.004708984086306943 0.004767264325045748 0.004826642074493775 0.004890201953676651 0.004944405502981717 0.005003235725165666 0.005062077921731009 0.005108064904166537 0.005166565935532606 0.005224767954212088 0.005277238168186772 0.005329324560646411 0.005384097822914279 0.005438007249734042 0.005479028842543375 0.005537689863474403 0.00558799266093676 0.0056385133410406475 0.005974457751478706 0.006016480106294994 0.006055248352661635 0.006102831909902986 0.006141191193654666 0.006180395804677958 0.006216718546900753 0.006256105537425503 0.006290336916345022 0.006334772437968063 0.0063710235817897466 0.006399433942195394 0.006427437337972754 0.006458869078736189 0.006489042691018501 0.006518701129788269 0.0065421193822718035 0.006566289422917718 0.006591999815593669 0.006610850231869873 0.006637168748470405 0.006651821526395317 0.006670584116035478 0.006686194962481418 0.006700696643024251 0.006712441842287252 0.006732912814984963 0.006744536116893765 0.0067569726494749035 0.006770308180030993 0.006783233493784402 0.006785112456857275 0.006793921834256501 0.006800814770324027 0.0067928392483561015 0.006795487076741124 0.006802921661604828 0.006799981845492515 0.006803499713860646 0.006797649187524469 0.006789197027157562 0.0067881948778173405 0.006784241861901085 0.006770871151158404 0.00676422070829458 0.006746757555099692 0.006732437790101249 0.006720617577349274 0.006701477255461171 0.006695033878378598 0.006679261130305424 0.006661203209452315 0.006638798862858814 0.0066180372304715145 0.0065940034533672354 0.006571075483651606 0.006539929095779796 0.006515790357031824 0.006485873518202823 0.0064651420884442095 0.006434676957289501 0.0064015683702413105 0.0063760479978946846 0.006345109579533029 0.006310159894882883 0.0062815324602475695 0.006247850300528229 0.006209640710379247 0.006164996714164103 0.00611775661239296 0.006076693835553003 0.006031953597431098 0.005990723537111828 0.005945909724107181 0.0058945935665803495 0.005841036369985393 0.005796835225812624 0.0057455617170817045 0.005694006295020169 0.005644058697245921 0.005589646025817317 0.0055231852973276875 0.005469428252338373 0.005416702165803543 0.005357911703672453 0.005296686483904748 0.005239992568021357 0.005175447159947239 0.005113652878719247 0.005055903967299265 0.00498032943587868 0.004909487331262874 0.004849694510784647 0.004781335231173572 0.004708942680327477 0.004643721449846263 0.00456396207572171 0.004497404027788712 0.00441930350395328 0.0043465618775460095 0.0042810716693647355 0.004207662899540814 0.0041301468989754985 0.00405698338629386 0.003983519096787832 0.003901869406098083 0.0038294493210805965 0.0037546675307057317 0.0036671734819286044 0.0035724521603674674 0.003483287385936247 0.003396862424376421 0.00330664430924571 0.0032275273716469094 0.0031415732632841336 0.0030626333712437124 0.0029776640197039747 0.002894009486248213 0.0027970693360922384 0.0027114477436867078 0.002629635037734662 0.002549439981888105 0.0024714313091208718 0.0023734416878367017 0.0022935913709986678 0.002208972217871536 0.0021276572025971142 0.0020361249948270843 0.0019458507737904202 0.001841536672659575 0.0017595307955819953 0.0016660484682041584 0.0015734815356253 0.0014858566824325061 0.0013925125129270774 0.00129795359335272 0.0012033228349665184 0.0011142613104861989 0.0010243910746711524 0.0009358436714855567 0.0008454081563818255 0.0007477573132548913 0.0006614979669680685 0.0005690605907880328 0.0004803141080125025 0.00038841516750093123 0.0002983929555357265 0.00020834686985789406 0.00011853461279396743 6.05485545103529e-05 0.0001018445369063304 0.0008908377206182398 0.0008936334458310497 0.0008957289160543305 0.0008925864410617787 0.0008944345551437053 0.0008911768822835978 0.0008995599716031329 0.0008999424208545089 0.0009879772900685839 0.0010683470747470272 0.0011560378128473757 0.0012420977709531736 0.0013272441878249828 0.0014196534432808162 0.001507448477770597 0.0015948406875572166 0.0016761291717649945 0.0017635542427174398 0.0018496051457851674 0.0019495129450212173 0.0020315135559045615 0.002118133335964381 0.002204956073796712 0.002289638504356505 0.002392227514950313 0.002473419975629008 0.002562231885552217 0.002641711032677868 0.002728942861024445 0.002823998561485598 0.002903561798602224 0.0029787574440897453 0.0030607635588397854 0.0031415254006925057 0.003217215233405097 0.0033000307578707486 0.0033816172534039115 0.0034613098961016565 0.0035483144852559655 0.0036310100606680483 0.0037161658869084447 0.0037977375449842975 0.0038797621044697854 0.003961313155041315 0.004038940810913679 0.004113862168924377 0.004195159119705902 0.004265598252281414 0.004332447151431106 0.004404276887073728 0.004479672107565017 0.004562568245443557 0.004624711150825358 0.004690968348345805 0.00475208411155135 0.0048166639498911515 0.004892559602038874 0.0049574246118782375 0.005014189125897828 0.005077154706604302 0.005139398864061159 0.005201557744778238 0.005272162515478393 0.00533016283856929 0.005393505255541087 0.005445850585867284 0.005501767726954912 0.005557093466623212 0.005605797658368257 0.00565495685532836 0.005697078523690131 0.00574538923439659 0.005794746247176217 0.005844973575011666 0.005895256881675309 0.005938753395228743 0.005975825916146855 0.006014300656828304 0.006054081381833865 0.006095883544463094 0.006129803482527142 0.006168858579007495 0.006206236515883575 0.006242190821278469 0.006280640120366009 0.006305781765068947 0.0063386578264619875 0.006365559112590936 0.0063982930616075726 0.0064233474180040735 0.00644676943343501 0.006472556230780145 0.006489182778978042 0.006513212716987885 0.006532176605868268 0.006556366445143469 0.006574166870742917 0.0065844163407560155 0.00660182246775897 0.006613909401869045 0.006626280976673086 0.006638310902176815 0.006647201630344497 0.006661264018505311 0.006663161507130937 0.006669166749788789 0.006679281945598408 0.006672697367902916 0.006678309327228645 0.006674368919893164 0.006673230016762376 0.006672678392693801 0.006662528432032058 0.0066620532790097765 0.006651509936036366 0.0066458623376637535 0.006642091942293165 0.0066327003742955555 0.006617936842077789 0.00660301230533985 0.00658448667020582 0.006568651227619399 0.006550255734418924 0.006529649880214897 0.006510326467497777 0.006490384638454482 0.006467086957646427 0.0064454397685400995 0.006418837567367021 0.006387587543348059 0.006361305060146269 0.006333434779147966 0.006304755520186337 0.006275293336688841 0.006236626709987177 0.006209352726192104 0.00617861661645763 0.006142860210899096 0.006108279540639798 0.006072891557820887 0.006035214203216063 0.005992971692330045 0.005950603233520472 0.00590978739222224 0.005859545101493551 0.0058118784881418546 0.005764594952148562 0.005718275231315938 0.0056707992036487305 0.005620227012410657 0.005567714385812886 0.00551994101580065 0.005465740746759802 0.0054107502351543775 0.00536069938431828 0.0053102011268949005 0.005241650615139194 0.005185540357996468 0.005131055366451521 0.005071284636600506 0.005010216984146145 0.004942872315037326 0.00488537629597384 0.004825622480805298 0.004759679455822644 0.004689674229904472 0.00462152291007378 0.004548985076559055 0.004487069001943996 0.00441258045523541 0.0043495605938116255 0.004281529412603376 0.004207815468056787 0.0041289153735402625 0.004057186410427807 0.003986482124493685 0.003913057120501087 0.003837284659240571 0.0037691167011208743 0.0036889379727793104 0.0036144970355849477 0.0035447819251146727 0.003457282923889796 0.003371442786376115 0.003281936059040119 0.003197314831848529 0.0031189559118005874 0.003042525855907823 0.002951510083165734 0.0028754140079136218 0.002792857863721334 0.002715033488392522 0.002636643850224791 0.002556959789864147 0.002468662481383321 0.002394895176741495 0.0023152992744789338 0.002243921885079531 0.0021647387979657428 0.0020644092642217978 0.001981887489351009 0.0018945943887970274 0.0018164377240339718 0.0017274022335954462 0.0016419711050831088 0.0015525060764797754 0.001468659700572908 0.0013842057036975589 0.0012978793434566635 0.0012150731739081334 0.0011146925474547265 0.001034442701766352 0.0009518654602862152 0.0008719877359106153 0.0007875021479418896 0.0007016223719909968 0.0006147506386345468 0.0005292115155491044 0.0004433706661578672 0.00035752198309653774 0.0002722057166747312 0.00018418541341308947 0.0001023373709833629 3.937540886073654e-05 7.903112242984795e-05 0.0001654597316107784 0.0001776073913691649 0.0002503408221651424 0.0003391521381090949 0.00042540438274898344 0.0005001353397751189 0.0005855515919396772 0.0006645129052354184 0.0007425267012445715 0.0008369489372098628 0.0009130984037114078 0.0009962386992666927 0.0010762041926449344 0.001162008252462176 0.0012437329463665678 0.001322993914422633 0.0014025031646256868 0.0014762684457448334 0.001566438164592768 0.0016482530466787367 0.0017223775869919969 0.0018003796536727036 0.0018812231143840563 0.00194908656615086 0.0020310990591255475 0.0021098532738085757 0.0021835818753511986 0.002250423758951074 0.002324813848596109 0.0023978774656464134 0.0024752940337905167 0.0025408136388180365 0.0026121486834538576 0.0026820391315426555 0.0027401363436422087 0.0028090460946760304 0.00288553408602094 0.0029486682908193237 0.0030238328336668176 0.003086986997156337 0.0031555780734831953 0.0032183015778438078 0.003290695549727769 0.0033548418479793754 0.00341877378440249 0.0034755313283087296 0.0035426987666724807 0.003603299587363768 0.003659288831156333 0.003714882415241072 0.003768847005027398 0.00382936218621856 0.003890980654109895 0.0039481779106013 0.004008507547627357 0.004066697160802778 0.00411626673293232 0.004174379973062183 0.004221415918814589 0.004272451761620896 0.0043194077779215795 0.004366186266770994 0.004407185751105611 0.004457932049201388 0.0045005203472010665 0.004544402675874099 0.004586370266646047 0.004629369285825195 0.004667974850830835 0.004709491867989101 0.004755338412365923 0.004790122846686834 0.004832203523161915 0.004882457970623011 0.004918185961842583 0.004965923181421656 0.005420163932656588 0.005459174841938906 0.005490083893763915 0.005529396779042599 0.005567441151291661 0.005601651298732295 0.005639963084741139 0.005671528776835683 0.005708473647974043 0.005737206876909779 0.005767996411765085 0.005793030623368468 0.005814646003205662 0.005842302462953384 0.005866260439469636 0.005895043606307629 0.005915323710819407 0.005937394395937095 0.005965380783293365 0.005978590553552979 0.005994169313035824 0.00601722540222666 0.006025058807045501 0.0060477289398078995 0.006056939250784918 0.006072680550028551 0.006085239150047648 0.006097864565059524 0.006109807636380401 0.006117692402626793 0.006125859626464451 0.00612910363051393 0.00613334025983679 0.006139584934119817 0.006142261806187936 0.00613921881788092 0.006143535356315367 0.00614145205786075 0.006139336626012373 0.006134304092135125 0.006130417529216216 0.006123860977818873 0.0061131859687282115 0.006105474369603399 0.0061000968917598155 0.0060837700927846615 0.006073445358043964 0.006061541961940423 0.00605000610357504 0.006033437469769627 0.006020292166722316 0.006001404885357839 0.005985993997954365 0.005966475151178644 0.005946034050175773 0.005923182171790997 0.005903112320912051 0.00587294530997593 0.005843625750998641 0.005816548602985251 0.005796648868760068 0.005768380748871273 0.0057431868322237924 0.0057177365716778285 0.005677531980245848 0.005643492305105148 0.005613238314965795 0.005573041103765032 0.005534088342444795 0.005531147010142248 0.005499394053478653 0.005454896260346585 0.00540996315952247 0.005371280572917904 0.005325145459968969 0.005283443966927049 0.0052394079051289125 0.005190750425861346 0.00514589482662964 0.00510099801110423 0.0050521398198038955 0.004994471292162618 0.004947841138599652 0.004903423058535038 0.004848074984301359 0.0047972821781611386 0.004740964116261025 0.004685434436414431 0.004626581543461022 0.0045702686765319266 0.004509316027474497 0.00445142714542775 0.0043792401082957955 0.004326005372927343 0.004258723691356266 0.004196377693951757 0.004133220694837491 0.004065574123939014 0.003997713464924005 0.003930348522569192 0.0038688036980131313 0.0038013679490935394 0.0037370422607981204 0.0036671566019510758 0.003590711153349362 0.0035293461212205384 0.0034561103443023094 0.003382825274385542 0.00330000164723906 0.0032049300978360487 0.0031325032666576985 0.003054639027730831 0.0029783374821586183 0.002896066243342836 0.0028354389285113178 0.002748536377381771 0.0026630539586799656 0.0025912963723528797 0.002515367727043185 0.0024261917968878277 0.002358056175176944 0.0022795127555150546 0.002203575350535327 0.002124333991334058 0.0020479427339205863 0.001954250474784099 0.0018752476296281153 0.0017893442366639538 0.0017145288565606745 0.001623458832079624 0.0015271728840902832 0.0014505522729470735 0.0013691169963966528 0.0012873003777481898 0.001200201938818385 0.0011172673154854972 0.0010300673710606407 0.0009438301577925471 0.0008625167499850376 0.0007811159953710115 0.0006961487078269398 0.0006031739623567413 0.0005225507437860021 0.00044009850791030056 0.0003490653865447533 0.0002731784714319369 0.00019428118670789936 0.00011500183554033105 7.133738642499588e-05 0.0007463190762964055 0.0007493337437798337 0.0007497525047003284 0.0007497751260920182 0.0007503339299122318 0.0007449733484545829 0.0007463871299350046 0.0007482346285310068 0.0008218519499291297 0.0008954063282176467 0.0009744773951617049 0.0010485925306100545 0.0011162835596868306 0.0011897660273914646 0.0012621920677517852 0.0013342761564293943 0.0014208009986689816 0.0014933445266690122 0.0015712738601518761 0.0016437638250578076 0.0017247135500320092 0.0017980351079721303 0.00187429220205165 0.0019498422791542644 0.0020196045991977543 0.0020962658373410758 0.0021792657191211074 0.002250601250060491 0.0023219213061135024 0.0024007076373824513 0.002469367642002787 0.0025478342046515246 0.0026143784764939243 0.002690376113375048 0.0027545725763552993 0.0028236459633992506 0.0029023116373978136 0.002975700111887782 0.003038484283257187 0.003109920394650604 0.003188265514298759 0.003257929242240996 0.0033326240584287403 0.003405827809321955 0.0034725561462596766 0.003544057984284654 0.0035996999576147983 0.003664234502918447 0.003732007272034441 0.0038039560449637994 0.003865613960809282 0.003921647544189821 0.003978394792089087 0.004032010043589695 0.004100314422754327 0.004153754827914181 0.0042101959560634835 0.004270696977516851 0.0043227235061887685 0.004385871328750831 0.004438361272706163 0.004492888444745533 0.004543029434128863 0.004596189098881799 0.004646494149088503 0.004705398607569645 0.004748116885624123 0.004786327357894438 0.0048368167108656214 0.004881583424065784 0.004919456591363135 0.004967621084498353 0.005006128857312305 0.005048076450316422 0.005088590630196478 0.005132706382688498 0.005163162013810127 0.005202798282612101 0.005231837524894756 0.005262870952456425 0.005304572859050134 0.005335789218368627 0.005364243119288202 0.005396087315663523 0.005424537047612231 0.005446195824167299 0.005468954275726621 0.005488045020025565 0.005519443605031381 0.005543553259193546 0.005554024328810825 0.005576941788321668 0.005590392101189222 0.005608818474131491 0.005630820783262696 0.005638726121816136 0.005659037706769658 0.005665817827330959 0.005678632569044777 0.005687249371038975 0.005692082287274198 0.00570149121602472 0.005714564064762374 0.005718545425016685 0.005716191320301198 0.005722055453978173 0.005725105820632857 0.005721917657452125 0.005720678693626951 0.005719872295421967 0.005721478367874798 0.0057139577083154015 0.0057079968910806415 0.005699488626293848 0.0056962752843258925 0.005682672336026263 0.0056754314032210935 0.005665524613902882 0.005650652699234711 0.00563701303319865 0.005612241530938552 0.005601583336792958 0.005585523496735775 0.005572011577879767 0.0055553113551563334 0.0055308530426416425 0.005511253647648929 0.005485485025456683 0.005459889570667078 0.00543875347967979 0.00542002755487899 0.005382335561136033 0.00535251620494998 0.005327389178610894 0.005295391560443661 0.00526589500565174 0.005237597518189076 0.005205204446787425 0.00517875676258543 0.005141189001000762 0.005113487872725916 0.005070810971668778 0.005033554345662509 0.004997300972015183 0.004959220966386761 0.0049171557561679255 0.00487687075070396 0.004830109097867113 0.004786370920941639 0.004744786300698631 0.004701180772383873 0.004659272506077025 0.004611181182047848 0.0045605920544149 0.004513159569092968 0.004470112061938418 0.00442008800417179 0.004377865690036021 0.004318307308172227 0.004264630286582229 0.004212595356204793 0.004159327281755089 0.004108039095805048 0.004047671255408683 0.003991487022087802 0.003931840052101924 0.003876935788879136 0.0038167091952605323 0.0037565337505383383 0.003694712483425542 0.0036417994140918166 0.0035777300092771085 0.0035137735332209704 0.0034630427192685613 0.0033879462445012506 0.003330019024915743 0.0032756544590606513 0.0032078462093611854 0.003142703840484566 0.003069797713817974 0.0030011470940682302 0.0029292653421024314 0.0028703908735972588 0.002805095193369725 0.0027319125137067303 0.0026604197399606078 0.0025979133670483456 0.0025328830911468805 0.002467891008724778 0.002398605264404292 0.0023487851816562087 0.0022669430445263214 0.0021922563567650403 0.0021246107588904755 0.002058262946611537 0.001984632667937173 0.0019197761038797668 0.0018553537076005315 0.001787582487968381 0.0017199698423691367 0.0016548968963521443 0.0015746850462483397 0.0015024746484093006 0.0014306165765834258 0.001364407482099341 0.0012942619731323092 0.001222602917874354 0.0011418506951161199 0.0010739107585058588 0.0010046934732357716 0.0009409692553253509 0.0008729283315063246 0.000791778834379463 0.0007216525927540726 0.0006534463562581544 0.0005828954395503018 0.0005191606075138942 0.00044945083511980843 0.000369739614313566 0.0002975927957015295 0.00023192343141433666 0.0001607421965505447 9.093317051758159e-05 1.7256939737543812e-05 5.9670437591797646e-05 0.00013216009605721032 0.0002000908206395378 0.00026987959099673863 0.000347302076136941 0.00040897865195670645 0.0004768141213736994 0.0005409234433865617 0.0006050301147985799 0.0006737548831287771 0.0007434322129465977 0.0008164038537301872 0.0008754720811310769 0.0009356789850873498 0.0010051067438837772 0.0010660425526999911 0.0011385612782060055 0.0011963147853338305 0.001264741586912113 0.0013264870314328688 0.0013871452572001546 0.0014579495355245432 0.0015216833941676913 0.0015802353674368187 0.001646245509144285 0.0017005705659089729 0.0017601123443272383 0.0018196654119805621 0.0018753963469292922 0.00192962152007034 0.0019823876452145553 0.0020417706049465725 0.00209015806911994 0.002145260700060059 0.0021942843562171204 0.0022530799311146453 0.0023048625771866665 0.002356192568154134 0.002412378207372944 0.0024576160259519304 0.0025061894543993014 0.0025499914785028477 0.0025969041544332363 0.0026571891720593393 0.002698326212264095 0.002747458191868915 0.002786925150176521 0.002828245595730588 0.002875686456035594 0.002921570476118963 0.002960871028981598 0.0029983394674860616 0.0030392871327489797 0.003076776491374014 0.0031241213472729995 0.003159771353693582 0.0032022843920185796 0.003238347594210507 0.0032742227450011626 0.0033137887146627806 0.0033437849532850597 0.0033715381508198964 0.003401891892135958 0.003432497767558449 0.0034622668825338107 0.003490055274433556 0.003515406919796783 0.0035480627493057366 0.003572366939860155 0.003599437222231405 0.0036256202187634388 0.0036542154857280686 0.003685354727381907 0.0037071837808913015 0.0037301619952204617 0.0037636730763678772 0.003780931434171136 0.004312757717177331 0.004343672473582342 0.0043722622591002335 0.004402378936190684 0.004428148321816825 0.004457945732031974 0.004492041194229993 0.0045153170272404395 0.004541171005276299 0.004560196765790356 0.004585116189600768 0.004606625420331999 0.004626162431836478 0.0046502846687538815 0.004665379364732973 0.004685475392048275 0.004707534496668131 0.0047191518873120585 0.0047402936220037875 0.004752076594425705 0.004760772288217191 0.004778259651830528 0.004785080469206977 0.004798118606857825 0.004808362516206176 0.004811043864288402 0.004824355341727678 0.004836304422404105 0.004845250425971366 0.004850701815764591 0.004854438413668006 0.004858277929823702 0.004859942957092532 0.004864666170578689 0.004861821661490921 0.004859494400710957 0.00486443516707519 0.004861291791680929 0.004856962842988382 0.004857778838172246 0.004848454423477726 0.004847146762314864 0.004838714530740438 0.004833811642896943 0.004825238669482708 0.004813955914688792 0.004805624103816525 0.0047942893631821625 0.004781795866676135 0.004769751218050331 0.004752653217537357 0.004742946867888212 0.0047258725377569396 0.004715671320781063 0.004701671160443438 0.004677342523961523 0.004657664968605303 0.004633749915086026 0.004621614189462892 0.004604013160222436 0.004574107006649368 0.00455522235282103 0.0045399506403802645 0.00451398841138586 0.004485576900400362 0.004463029356088081 0.004434704584926777 0.004401481382567464 0.004372166364964735 0.004341848313983992 0.00430981696372345 0.004276685279998686 0.004240827108026533 0.00420937160291223 0.004172503750779686 0.004136982091134646 0.004104794655174792 0.004067433455686605 0.0040306651909994134 0.003999982744694007 0.003955897906004577 0.00391592832544502 0.003871933414916817 0.0038348739464320204 0.0037934557217869937 0.0037562136939011215 0.0037140103463919405 0.0036690539745840877 0.003618614374041126 0.0035731227184441364 0.0035236290778242474 0.0034759882603345683 0.003430263394551796 0.0033799185417519775 0.003334388441885074 0.003285616526366653 0.003233978585738001 0.003181045914370073 0.00313231876323231 0.0030775632320110863 0.0030257483341551514 0.002982384802540977 0.002925830436376872 0.002871340434167247 0.0028161105175192034 0.0027553183430909655 0.0026917174484443083 0.0026282629135917068 0.002566057813083087 0.002498768482915523 0.0024410850605154264 0.002380682631167303 0.00232403329203558 0.0022644402128317222 0.0022027188980890487 0.0021322818697214856 0.002075999952714193 0.002013957710555166 0.001962986388589173 0.0019051789221268232 0.0018347013494783631 0.0017750028546843826 0.001718144553016759 0.001652637652755153 0.0015917043605491493 0.0015225167077812945 0.0014537393041348812 0.0013861050429845475 0.0013167612166098896 0.0012466581660746027 0.0011851984929777248 0.001116943182772404 0.0010412406400889375 0.0009752962454155444 0.0009077669866081819 0.0008407357591262569 0.0007726146003294829 0.0007077933075177909 0.0006318471368629477 0.0005692881567436614 0.0004981360948974785 0.00043391080012963916 0.00035523426540878914 0.0002844393676473898 0.00021846390785933224 0.00015416524616329043 9.80695053357692e-05 7.278119826091788e-05 0.00010852861844749776 0.0005507871606467763 0.0005571634484676939 0.000555505377660211 0.000556254429513133 0.0005494450730059077 0.000557639452661031 0.0005597856753780204 0.000561843024495468 0.0006193025464089168 0.0006678989415459991 0.0007271362915889586 0.0007817714523541088 0.0008542858563656574 0.0009064648237005734 0.0009598182170473148 0.0010228240538900331 0.0010794024922896057 0.0011352201665624558 0.0011967179052391826 0.001256193454730009 0.001322473003020159 0.0013707535771361804 0.0014342672301857302 0.0015004584519220916 0.0015566091956478135 0.0016125328094138388 0.0016738756577584976 0.001727519323447559 0.0017872497796203798 0.0018465703929238695 0.0019049443107109177 0.001960001041134712 0.0020130185584458626 0.002062987426484866 0.002120181777183606 0.002180938324215887 0.002240603388979333 0.0022937805141070152 0.0023440086839935097 0.002410830575081496 0.002463810463751176 0.002515565645781506 0.0025763202994997536 0.0026274409079641934 0.0026769764838443315 0.0027329966119295666